What is the capital of Mongolia?;Ulaanbaatar
What is 5 + 7?;12
What is the largest planet in the solar system?;Jupiter
What year did World War II end?;1945
Who wrote 'Romeo and Juliet'?;Shakespeare
What is the chemical symbol for water?;H2O
Which ocean is the largest?;Pacific
How many continents are there?;7
What gas do plants absorb from the atmosphere?;Carbon dioxide
Who painted the Mona Lisa?;Leonardo da Vinci
What is the square root of 81?;9
What is the currency of Japan?;Yen
What language is spoken in Brazil?;Portuguese
Who discovered gravity?;Newton
What is the capital of France?;Paris
Which planet is known as the Red Planet?;Mars
What is 9 * 8?;72
What is the boiling point of water in Celsius?;100
Which metal is heavier: Gold or Silver?;Gold
What is the longest river in the world?;Nile
Who is known as the father of computers?;Charles Babbage
What is the fastest land animal?;Cheetah
What is the largest mammal?;Blue whale
Which element has the atomic number 1?;Hydrogen
Who invented the lightbulb?;Thomas Edison
What is the capital of Germany?;Berlin
What does DNA stand for?;Deoxyribonucleic acid
How many hours are in a day?;24
How many minutes in an hour?;60
Which planet has rings?;Saturn
What is the speed of light in vacuum (km/s)?;300000
What organ pumps blood through the body?;Heart
Which country is known as the Land of the Rising Sun?;Japan
What is the smallest prime number?;2
